<?xml version="1.0" encoding="UTF-8"?>

<!-- generated on 2026-01-14T15:16:26.014952-06:00 by Eclipse SUMO sumo 1.25.0
<sumoConfiguration xmlns:xsi="http://www.w3.org/2001/XMLSchema-instance" xsi:noNamespaceSchemaLocation="http://sumo.dlr.de/xsd/sumoConfiguration.xsd">

    <input>
        <net-file value="610EB/610EB.net.xml"/>
        <route-files value="610EB/demand.rou.xml"/>
        <additional-files value="610EB/detectors.xml"/>
    </input>

    <output>
        <output-prefix value="fullHV_A2"/>
        <tripinfo-output value="tripinfo.xml"/>
        <statistic-output value="statistics.xml"/>
    </output>

    <time>
        <step-length value=".05"/>
    </time>

    <report>
        <duration-log.statistics value="true"/>
    </report>

    <traci_server>
        <remote-port value="52584"/>
    </traci_server>

</sumoConfiguration>
-->

<tripinfos xmlns:xsi="http://www.w3.org/2001/XMLSchema-instance" xsi:noNamespaceSchemaLocation="http://sumo.dlr.de/xsd/tripinfo_file.xsd">
    <tripinfo id="HV_11_1.0" depart="0.00" departLane="ent-EB610/SB169-2_1" departPos="5.10" departSpeed="20.10" departDelay="0.00" arrival="76.70" arrivalLane="exit-EB610/NB169_0" arrivalPos="100.00" arrivalSpeed="14.03" duration="76.70" routeLength="1122.84" waitingTime="0.00" waitingCount="0" stopTime="0.00" timeLoss="25.65" rerouteNo="1" devices="tripinfo_HV_11_1.0 routing_HV_11_1.0" vType="HV_M" speedFactor="1.01" vaporized=""/>
    <tripinfo id="HV_11_0.0" depart="0.00" departLane="ent-EB610/SB169-2_0" departPos="5.10" departSpeed="19.87" departDelay="0.00" arrival="79.60" arrivalLane="exit-EB610/NB169_0" arrivalPos="100.00" arrivalSpeed="13.82" duration="79.60" routeLength="1122.84" waitingTime="0.00" waitingCount="0" stopTime="0.00" timeLoss="28.99" rerouteNo="1" devices="tripinfo_HV_11_0.0 routing_HV_11_0.0" vType="HV_M" speedFactor="1.02" vaporized=""/>
    <tripinfo id="HV_1_0.0" depart="0.00" departLane="ent-EB610-94_0" departPos="5.10" departSpeed="20.10" departDelay="0.00" arrival="85.50" arrivalLane="exit-EB610/NBMapleGrove_0" arrivalPos="100.00" arrivalSpeed="14.72" duration="85.50" routeLength="1716.82" waitingTime="0.00" waitingCount="0" stopTime="0.00" timeLoss="18.97" rerouteNo="1" devices="tripinfo_HV_1_0.0 routing_HV_1_0.0" vType="HV_M" speedFactor="1.06" vaporized=""/>
    <tripinfo id="HV_20_0.0" depart="0.00" departLane="ent-EB610/NB169-2_0" departPos="5.10" departSpeed="20.05" departDelay="0.00" arrival="87.50" arrivalLane="exit-EB610/Broadway_0" arrivalPos="100.00" arrivalSpeed="15.28" duration="87.50" routeLength="1362.54" waitingTime="0.00" waitingCount="0" stopTime="0.00" timeLoss="26.49" rerouteNo="1" devices="tripinfo_HV_20_0.0 routing_HV_20_0.0" vType="HV_M" speedFactor="1.10" vaporized=""/>
    <tripinfo id="HV_23_1.0" depart="0.00" departLane="ent-EB610/NBBroadway_1" departPos="5.10" departSpeed="20.10" departDelay="0.00" arrival="89.25" arrivalLane="exit-EB610/SBZane_0" arrivalPos="100.00" arrivalSpeed="15.11" duration="89.25" routeLength="1471.12" waitingTime="0.00" waitingCount="0" stopTime="0.00" timeLoss="30.14" rerouteNo="1" devices="tripinfo_HV_23_1.0 routing_HV_23_1.0" vType="HV_M" speedFactor="1.09" vaporized=""/>
    <tripinfo id="HV_1_1.0" depart="0.00" departLane="ent-EB610-94_1" departPos="5.10" departSpeed="18.86" departDelay="0.00" arrival="93.60" arrivalLane="exit-EB610/NBMapleGrove_0" arrivalPos="100.00" arrivalSpeed="13.03" duration="93.60" routeLength="1716.82" waitingTime="0.00" waitingCount="0" stopTime="0.00" timeLoss="18.41" rerouteNo="1" devices="tripinfo_HV_1_1.0 routing_HV_1_1.0" vType="HV_M" speedFactor="0.94" vaporized=""/>
    <tripinfo id="HV_23_0.0" depart="0.00" departLane="ent-EB610/NBBroadway_0" departPos="5.10" departSpeed="20.05" departDelay="0.00" arrival="93.70" arrivalLane="exit-EB610/SBZane_0" arrivalPos="100.00" arrivalSpeed="14.45" duration="93.70" routeLength="1471.12" waitingTime="0.00" waitingCount="0" stopTime="0.00" timeLoss="32.03" rerouteNo="1" devices="tripinfo_HV_23_0.0 routing_HV_23_0.0" vType="HV_M" speedFactor="1.04" vaporized=""/>
    <tripinfo id="HV_31_1.0" depart="0.00" departLane="ent-EB610/NBZane_1" departPos="5.10" departSpeed="20.10" departDelay="0.00" arrival="96.40" arrivalLane="exit-EB610/SBNoble_0" arrivalPos="100.00" arrivalSpeed="15.55" duration="96.40" routeLength="1548.70" waitingTime="0.00" waitingCount="0" stopTime="0.00" timeLoss="36.43" rerouteNo="1" devices="tripinfo_HV_31_1.0 routing_HV_31_1.0" vType="HV_M" speedFactor="1.12" vaporized=""/>
    <tripinfo id="HV_20_1.0" depart="0.00" departLane="ent-EB610/NB169-2_1" departPos="5.10" departSpeed="18.10" departDelay="0.00" arrival="99.10" arrivalLane="exit-EB610/Broadway_0" arrivalPos="100.00" arrivalSpeed="12.51" duration="99.10" routeLength="1362.54" waitingTime="0.00" waitingCount="0" stopTime="0.00" timeLoss="24.44" rerouteNo="1" devices="tripinfo_HV_20_1.0 routing_HV_20_1.0" vType="HV_M" speedFactor="0.90" vaporized=""/>
    <tripinfo id="HV_31_0.0" depart="0.00" departLane="ent-EB610/NBZane_0" departPos="5.10" departSpeed="20.05" departDelay="0.00" arrival="100.55" arrivalLane="exit-EB610/SBNoble_0" arrivalPos="100.00" arrivalSpeed="14.98" duration="100.55" routeLength="1548.70" waitingTime="0.00" waitingCount="0" stopTime="0.00" timeLoss="38.61" rerouteNo="1" devices="tripinfo_HV_31_0.0 routing_HV_31_0.0" vType="HV_M" speedFactor="1.08" vaporized=""/>
    <tripinfo id="HV_94_0.0" depart="0.00" departLane="ent-EB610/University_0" departPos="5.10" departSpeed="20.05" departDelay="0.00" arrival="107.20" arrivalLane="exit-EB610_0" arrivalPos="200.00" arrivalSpeed="28.91" duration="107.20" routeLength="2411.62" waitingTime="0.00" waitingCount="0" stopTime="0.00" timeLoss="18.79" rerouteNo="1" devices="tripinfo_HV_94_0.0 routing_HV_94_0.0" vType="HV_M" speedFactor="1.08" vaporized=""/>
    <tripinfo id="HV_53_1.0" depart="0.00" departLane="ent-EB610/NB252_1" departPos="5.10" departSpeed="20.10" departDelay="0.00" arrival="121.75" arrivalLane="exit-EB610/River_0" arrivalPos="100.00" arrivalSpeed="14.90" duration="121.75" routeLength="2294.41" waitingTime="0.00" waitingCount="0" stopTime="0.00" timeLoss="32.90" rerouteNo="1" devices="tripinfo_HV_53_1.0 routing_HV_53_1.0" vType="HV_M" speedFactor="1.07" vaporized=""/>
    <tripinfo id="HV_43_1.0" depart="0.00" departLane="ent-EB610/NBNoble_1" departPos="5.10" departSpeed="19.62" departDelay="0.00" arrival="123.45" arrivalLane="exit-EB610/SB252_0" arrivalPos="100.00" arrivalSpeed="13.56" duration="123.45" routeLength="2089.57" waitingTime="0.00" waitingCount="0" stopTime="0.00" timeLoss="33.81" rerouteNo="1" devices="tripinfo_HV_43_1.0 routing_HV_43_1.0" vType="HV_M" speedFactor="0.98" vaporized=""/>
    <tripinfo id="HV_94_1.0" depart="0.00" departLane="ent-EB610/University_1" departPos="5.10" departSpeed="17.92" departDelay="0.00" arrival="123.65" arrivalLane="exit-EB610_0" arrivalPos="200.00" arrivalSpeed="23.89" duration="123.65" routeLength="2411.62" waitingTime="0.00" waitingCount="0" stopTime="0.00" timeLoss="16.70" rerouteNo="1" devices="tripinfo_HV_94_1.0 routing_HV_94_1.0" vType="HV_M" speedFactor="0.89" vaporized=""/>
    <tripinfo id="HV_43_0.0" depart="0.00" departLane="ent-EB610/NBNoble_0" departPos="5.10" departSpeed="20.06" departDelay="0.00" arrival="125.60" arrivalLane="exit-EB610/SB252_0" arrivalPos="100.00" arrivalSpeed="14.19" duration="125.60" routeLength="2089.57" waitingTime="0.00" waitingCount="0" stopTime="0.00" timeLoss="49.39" rerouteNo="1" devices="tripinfo_HV_43_0.0 routing_HV_43_0.0" vType="HV_M" speedFactor="1.15" vaporized=""/>
    <tripinfo id="HV_94_0.1" depart="6.50" departLane="ent-EB610/University_0" departPos="5.10" departSpeed="19.67" departDelay="0.04" arrival="126.15" arrivalLane="exit-EB610_0" arrivalPos="200.00" arrivalSpeed="24.75" duration="119.65" routeLength="2411.62" waitingTime="0.00" waitingCount="0" stopTime="0.00" timeLoss="24.21" rerouteNo="1" devices="tripinfo_HV_94_0.1 routing_HV_94_0.1" vType="HV_M" speedFactor="1.00" vaporized=""/>
    <tripinfo id="HV_3_0.0" depart="0.00" departLane="ent-EB610/SBMapleGrove_0" departPos="5.10" departSpeed="19.99" departDelay="0.00" arrival="126.50" arrivalLane="exit-EB610/EB81_0" arrivalPos="100.00" arrivalSpeed="14.31" duration="126.50" routeLength="2107.36" waitingTime="0.00" waitingCount="0" stopTime="0.00" timeLoss="40.83" rerouteNo="1" devices="tripinfo_HV_3_0.0 routing_HV_3_0.0" vType="HV_M" speedFactor="1.03" vaporized=""/>
    <tripinfo id="HV_16_0.0" depart="1.65" departLane="ent-EB610/SB169-2_0" departPos="5.10" departSpeed="18.04" departDelay="1.65" arrival="127.55" arrivalLane="exit-EB610/Broadway_0" arrivalPos="100.00" arrivalSpeed="16.31" duration="125.90" routeLength="2105.85" waitingTime="0.00" waitingCount="0" stopTime="0.00" timeLoss="45.09" rerouteNo="1" devices="tripinfo_HV_16_0.0 routing_HV_16_0.0" vType="HV_M" speedFactor="1.18" vaporized=""/>
    <tripinfo id="HV_5_0.0" depart="0.00" departLane="ent-EB610/EB81-2_0" departPos="5.10" departSpeed="18.85" departDelay="0.00" arrival="132.80" arrivalLane="exit-EB610/SBZachary_0" arrivalPos="100.00" arrivalSpeed="13.03" duration="132.80" routeLength="2213.37" waitingTime="0.00" waitingCount="0" stopTime="0.00" timeLoss="34.46" rerouteNo="1" devices="tripinfo_HV_5_0.0 routing_HV_5_0.0" vType="HV_M" speedFactor="0.94" vaporized=""/>
    <tripinfo id="HV_94_1.2" depart="12.95" departLane="ent-EB610/University_1" departPos="5.10" departSpeed="16.51" departDelay="0.04" arrival="135.60" arrivalLane="exit-EB610_1" arrivalPos="200.00" arrivalSpeed="26.37" duration="122.65" routeLength="2411.62" waitingTime="0.00" waitingCount="0" stopTime="0.00" timeLoss="25.78" rerouteNo="1" devices="tripinfo_HV_94_1.2 routing_HV_94_1.2" vType="HV_M" speedFactor="0.98" vaporized=""/>
    <tripinfo id="HV_94_1.1" depart="6.50" departLane="ent-EB610/University_1" departPos="5.10" departSpeed="16.91" departDelay="0.04" arrival="135.90" arrivalLane="exit-EB610_0" arrivalPos="200.00" arrivalSpeed="22.54" duration="129.40" routeLength="2411.62" waitingTime="0.00" waitingCount="0" stopTime="0.00" timeLoss="16.06" rerouteNo="1" devices="tripinfo_HV_94_1.1 routing_HV_94_1.1" vType="HV_M" speedFactor="0.84" vaporized=""/>
    <tripinfo id="HV_53_0.0" depart="0.00" departLane="ent-EB610/NB252_0" departPos="5.10" departSpeed="17.97" departDelay="0.00" arrival="138.00" arrivalLane="exit-EB610/River_0" arrivalPos="100.00" arrivalSpeed="12.42" duration="138.00" routeLength="2294.41" waitingTime="0.00" waitingCount="0" stopTime="0.00" timeLoss="31.43" rerouteNo="1" devices="tripinfo_HV_53_0.0 routing_HV_53_0.0" vType="HV_M" speedFactor="0.89" vaporized=""/>
    <tripinfo id="HV_94_1.3" depart="19.40" departLane="ent-EB610/University_1" departPos="5.10" departSpeed="16.38" departDelay="0.03" arrival="138.00" arrivalLane="exit-EB610_1" arrivalPos="200.00" arrivalSpeed="26.67" duration="118.60" routeLength="2411.62" waitingTime="0.00" waitingCount="0" stopTime="0.00" timeLoss="28.98" rerouteNo="1" devices="tripinfo_HV_94_1.3 routing_HV_94_1.3" vType="HV_M" speedFactor="1.06" vaporized=""/>
    <tripinfo id="HV_94_0.2" depart="12.95" departLane="ent-EB610/University_0" departPos="5.10" departSpeed="19.28" departDelay="0.04" arrival="138.25" arrivalLane="exit-EB610_0" arrivalPos="200.00" arrivalSpeed="23.45" duration="125.30" routeLength="2411.62" waitingTime="0.00" waitingCount="0" stopTime="0.00" timeLoss="26.17" rerouteNo="1" devices="tripinfo_HV_94_0.2 routing_HV_94_0.2" vType="HV_M" speedFactor="0.96" vaporized=""/>
    <tripinfo id="HV_27_0.0" depart="1.70" departLane="ent-EB610/NB169-2_0" departPos="5.10" departSpeed="18.62" departDelay="1.70" arrival="139.45" arrivalLane="exit-EB610/SBZane_0" arrivalPos="100.00" arrivalSpeed="14.12" duration="137.75" routeLength="2484.05" waitingTime="0.00" waitingCount="0" stopTime="0.00" timeLoss="37.36" rerouteNo="1" devices="tripinfo_HV_27_0.0 routing_HV_27_0.0" vType="HV_M" speedFactor="1.02" vaporized=""/>
    <tripinfo id="HV_27_1.0" depart="1.70" departLane="ent-EB610/NB169-2_1" departPos="5.10" departSpeed="16.27" departDelay="1.70" arrival="141.70" arrivalLane="exit-EB610/SBZane_0" arrivalPos="100.00" arrivalSpeed="14.17" duration="140.00" routeLength="2484.05" waitingTime="0.00" waitingCount="0" stopTime="0.00" timeLoss="46.77" rerouteNo="1" devices="tripinfo_HV_27_1.0 routing_HV_27_1.0" vType="HV_M" speedFactor="1.10" vaporized=""/>
    <tripinfo id="HV_5_1.0" depart="0.00" departLane="ent-EB610/EB81-2_1" departPos="5.10" departSpeed="17.22" departDelay="0.00" arrival="142.25" arrivalLane="exit-EB610/SBZachary_0" arrivalPos="100.00" arrivalSpeed="11.90" duration="142.25" routeLength="2213.37" waitingTime="0.00" waitingCount="0" stopTime="0.00" timeLoss="34.59" rerouteNo="1" devices="tripinfo_HV_5_1.0 routing_HV_5_1.0" vType="HV_M" speedFactor="0.86" vaporized=""/>
    <tripinfo id="HV_94_1.5" depart="32.30" departLane="ent-EB610/University_1" departPos="5.10" departSpeed="16.28" departDelay="0.02" arrival="143.05" arrivalLane="exit-EB610_1" arrivalPos="200.00" arrivalSpeed="31.86" duration="110.75" routeLength="2411.62" waitingTime="0.00" waitingCount="0" stopTime="0.00" timeLoss="35.19" rerouteNo="1" devices="tripinfo_HV_94_1.5 routing_HV_94_1.5" vType="HV_M" speedFactor="1.26" vaporized=""/>
    <tripinfo id="HV_9_1.0" depart="0.00" departLane="ent-EB610/NBZachary_1" departPos="5.10" departSpeed="18.92" departDelay="0.00" arrival="143.30" arrivalLane="exit-EB610/SB169_0" arrivalPos="100.00" arrivalSpeed="13.08" duration="143.30" routeLength="2599.59" waitingTime="0.00" waitingCount="0" stopTime="0.00" timeLoss="30.33" rerouteNo="1" devices="tripinfo_HV_9_1.0 routing_HV_9_1.0" vType="HV_M" speedFactor="0.94" vaporized=""/>
    <tripinfo id="HV_3_1.0" depart="0.00" departLane="ent-EB610/SBMapleGrove_1" departPos="5.10" departSpeed="16.70" departDelay="0.00" arrival="144.40" arrivalLane="exit-EB610/EB81_0" arrivalPos="100.00" arrivalSpeed="11.54" duration="144.40" routeLength="2107.36" waitingTime="0.00" waitingCount="0" stopTime="0.00" timeLoss="38.15" rerouteNo="1" devices="tripinfo_HV_3_1.0 routing_HV_3_1.0" vType="HV_M" speedFactor="0.83" vaporized=""/>
    <tripinfo id="HV_2_1.0" depart="1.75" departLane="ent-EB610-94_1" departPos="5.10" departSpeed="18.86" departDelay="1.75" arrival="147.05" arrivalLane="exit-EB610/EB81_0" arrivalPos="100.00" arrivalSpeed="13.62" duration="145.30" routeLength="3356.52" waitingTime="0.00" waitingCount="0" stopTime="0.00" timeLoss="23.70" rerouteNo="1" devices="tripinfo_HV_2_1.0 routing_HV_2_1.0" vType="HV_M" speedFactor="1.08" vaporized=""/>
    <tripinfo id="HV_94_0.3" depart="19.40" departLane="ent-EB610/University_0" departPos="5.10" departSpeed="16.80" departDelay="0.03" arrival="149.95" arrivalLane="exit-EB610_0" arrivalPos="200.00" arrivalSpeed="22.39" duration="130.55" routeLength="2411.62" waitingTime="0.00" waitingCount="0" stopTime="0.00" timeLoss="16.45" rerouteNo="1" devices="tripinfo_HV_94_0.3 routing_HV_94_0.3" vType="HV_M" speedFactor="0.84" vaporized=""/>
    <tripinfo id="HV_94_0.4" depart="25.85" departLane="ent-EB610/University_0" departPos="5.10" departSpeed="19.44" departDelay="0.02" arrival="152.20" arrivalLane="exit-EB610_0" arrivalPos="200.00" arrivalSpeed="23.34" duration="126.35" routeLength="2411.62" waitingTime="0.00" waitingCount="0" stopTime="0.00" timeLoss="28.28" rerouteNo="1" devices="tripinfo_HV_94_0.4 routing_HV_94_0.4" vType="HV_M" speedFactor="0.97" vaporized=""/>
    <tripinfo id="HV_1_1.1" depart="45.25" departLane="ent-EB610-94_1" departPos="5.10" departSpeed="14.49" departDelay="25.14" arrival="152.25" arrivalLane="exit-EB610/NBMapleGrove_0" arrivalPos="100.00" arrivalSpeed="13.46" duration="107.00" routeLength="1716.82" waitingTime="0.00" waitingCount="0" stopTime="0.00" timeLoss="34.20" rerouteNo="1" devices="tripinfo_HV_1_1.1 routing_HV_1_1.1" vType="HV_M" speedFactor="0.97" vaporized=""/>
    <tripinfo id="HV_9_0.0" depart="0.00" departLane="ent-EB610/NBZachary_0" departPos="5.10" departSpeed="17.66" departDelay="0.00" arrival="152.30" arrivalLane="exit-EB610/SB169_0" arrivalPos="100.00" arrivalSpeed="12.20" duration="152.30" routeLength="2599.59" waitingTime="0.00" waitingCount="0" stopTime="0.00" timeLoss="31.19" rerouteNo="1" devices="tripinfo_HV_9_0.0 routing_HV_9_0.0" vType="HV_M" speedFactor="0.88" vaporized=""/>
    <tripinfo id="HV_94_0.5" depart="32.30" departLane="ent-EB610/University_0" departPos="5.10" departSpeed="19.33" departDelay="0.02" arrival="153.05" arrivalLane="exit-EB610_1" arrivalPos="200.00" arrivalSpeed="25.82" duration="120.75" routeLength="2411.62" waitingTime="0.00" waitingCount="0" stopTime="0.00" timeLoss="21.84" rerouteNo="1" devices="tripinfo_HV_94_0.5 routing_HV_94_0.5" vType="HV_M" speedFactor="0.96" vaporized=""/>
    <tripinfo id="HV_16_1.0" depart="14.65" departLane="ent-EB610/SB169-2_1" departPos="5.10" departSpeed="10.10" departDelay="14.65" arrival="153.35" arrivalLane="exit-EB610/Broadway_0" arrivalPos="100.00" arrivalSpeed="15.99" duration="138.70" routeLength="2105.85" waitingTime="0.00" waitingCount="0" stopTime="0.00" timeLoss="56.22" rerouteNo="1" devices="tripinfo_HV_16_1.0 routing_HV_16_1.0" vType="HV_M" speedFactor="1.15" vaporized=""/>
    <tripinfo id="HV_94_1.4" depart="25.85" departLane="ent-EB610/University_1" departPos="5.10" departSpeed="16.33" departDelay="0.02" arrival="154.25" arrivalLane="exit-EB610_0" arrivalPos="200.00" arrivalSpeed="23.78" duration="128.40" routeLength="2411.62" waitingTime="0.00" waitingCount="0" stopTime="0.00" timeLoss="36.72" rerouteNo="1" devices="tripinfo_HV_94_1.4 routing_HV_94_1.4" vType="HV_M" speedFactor="1.04" vaporized=""/>
    <tripinfo id="HV_1_0.1" depart="46.45" departLane="ent-EB610-94_0" departPos="5.10" departSpeed="15.13" departDelay="26.34" arrival="154.65" arrivalLane="exit-EB610/NBMapleGrove_0" arrivalPos="100.00" arrivalSpeed="13.39" duration="108.20" routeLength="1716.82" waitingTime="0.00" waitingCount="0" stopTime="0.00" timeLoss="38.68" rerouteNo="1" devices="tripinfo_HV_1_0.1 routing_HV_1_0.1" vType="HV_M" speedFactor="1.02" vaporized=""/>
    <tripinfo id="HV_94_0.6" depart="38.75" departLane="ent-EB610/University_0" departPos="5.10" departSpeed="19.38" departDelay="0.01" arrival="157.20" arrivalLane="exit-EB610_1" arrivalPos="200.00" arrivalSpeed="25.66" duration="118.45" routeLength="2411.62" waitingTime="0.00" waitingCount="0" stopTime="0.00" timeLoss="20.08" rerouteNo="1" devices="tripinfo_HV_94_0.6 routing_HV_94_0.6" vType="HV_M" speedFactor="0.97" vaporized=""/>
    <tripinfo id="HV_16_0.1" depart="22.00" departLane="ent-EB610/SB169-2_0" departPos="5.10" departSpeed="13.13" departDelay="0.05" arrival="158.70" arrivalLane="exit-EB610/Broadway_0" arrivalPos="100.00" arrivalSpeed="14.42" duration="136.70" routeLength="2105.85" waitingTime="0.00" waitingCount="0" stopTime="0.00" timeLoss="45.17" rerouteNo="1" devices="tripinfo_HV_16_0.1 routing_HV_16_0.1" vType="HV_M" speedFactor="1.04" vaporized=""/>
    <tripinfo id="HV_63_1.0" depart="1.70" departLane="ent-EB610/NB252_1" departPos="5.10" departSpeed="20.49" departDelay="1.70" arrival="159.00" arrivalLane="exit-EB610/CoonRapids_0" arrivalPos="100.00" arrivalSpeed="16.01" duration="157.30" routeLength="3310.79" waitingTime="0.00" waitingCount="0" stopTime="0.00" timeLoss="41.98" rerouteNo="1" devices="tripinfo_HV_63_1.0 routing_HV_63_1.0" vType="HV_M" speedFactor="1.15" vaporized=""/>
    <tripinfo id="HV_94_1.6" depart="38.75" departLane="ent-EB610/University_1" departPos="5.10" departSpeed="16.56" departDelay="0.01" arrival="160.60" arrivalLane="exit-EB610_0" arrivalPos="200.00" arrivalSpeed="25.59" duration="121.85" routeLength="2411.62" waitingTime="0.00" waitingCount="0" stopTime="0.00" timeLoss="23.37" rerouteNo="1" devices="tripinfo_HV_94_1.6 routing_HV_94_1.6" vType="HV_M" speedFactor="0.97" vaporized=""/>
    <tripinfo id="HV_22_0.0" depart="1.70" departLane="ent-EB610/SB169-2_0" departPos="5.10" departSpeed="17.99" departDelay="1.70" arrival="162.75" arrivalLane="exit-EB610/SBZane_0" arrivalPos="100.00" arrivalSpeed="15.17" duration="161.05" routeLength="3227.36" waitingTime="0.00" waitingCount="0" stopTime="0.00" timeLoss="41.93" rerouteNo="1" devices="tripinfo_HV_22_0.0 routing_HV_22_0.0" vType="HV_M" speedFactor="1.09" vaporized=""/>
    <tripinfo id="HV_94_1.7" depart="45.20" departLane="ent-EB610/University_1" departPos="5.10" departSpeed="16.55" departDelay="0.00" arrival="164.20" arrivalLane="exit-EB610_1" arrivalPos="200.00" arrivalSpeed="28.83" duration="119.00" routeLength="2411.62" waitingTime="0.00" waitingCount="0" stopTime="0.00" timeLoss="31.87" rerouteNo="1" devices="tripinfo_HV_94_1.7 routing_HV_94_1.7" vType="HV_M" speedFactor="1.09" vaporized=""/>
    <tripinfo id="HV_30_1.0" depart="1.25" departLane="ent-EB610/NBBroadway_1" departPos="5.10" departSpeed="19.49" departDelay="1.25" arrival="164.65" arrivalLane="exit-EB610/SBNoble_0" arrivalPos="100.00" arrivalSpeed="13.47" duration="163.40" routeLength="3132.97" waitingTime="0.00" waitingCount="0" stopTime="0.00" timeLoss="33.23" rerouteNo="1" devices="tripinfo_HV_30_1.0 routing_HV_30_1.0" vType="HV_M" speedFactor="0.97" vaporized=""/>
    <tripinfo id="HV_94_0.8" depart="51.70" departLane="ent-EB610/University_0" departPos="5.10" departSpeed="20.06" departDelay="0.04" arrival="165.95" arrivalLane="exit-EB610_2" arrivalPos="200.00" arrivalSpeed="29.49" duration="114.25" routeLength="2411.62" waitingTime="0.00" waitingCount="0" stopTime="0.00" timeLoss="28.03" rerouteNo="1" devices="tripinfo_HV_94_0.8 routing_HV_94_0.8" vType="HV_M" speedFactor="1.11" vaporized=""/>
    <tripinfo id="HV_30_0.0" depart="1.65" departLane="ent-EB610/NBBroadway_0" departPos="5.10" departSpeed="18.22" departDelay="1.65" arrival="166.95" arrivalLane="exit-EB610/SBNoble_0" arrivalPos="100.00" arrivalSpeed="13.37" duration="165.30" routeLength="3132.97" waitingTime="0.00" waitingCount="0" stopTime="0.00" timeLoss="42.02" rerouteNo="1" devices="tripinfo_HV_30_0.0 routing_HV_30_0.0" vType="HV_M" speedFactor="1.02" vaporized=""/>
    <tripinfo id="HV_94_0.7" depart="45.20" departLane="ent-EB610/University_0" departPos="5.10" departSpeed="18.16" departDelay="0.00" arrival="167.60" arrivalLane="exit-EB610_0" arrivalPos="200.00" arrivalSpeed="24.18" duration="122.40" routeLength="2411.62" waitingTime="0.00" waitingCount="0" stopTime="0.00" timeLoss="16.85" rerouteNo="1" devices="tripinfo_HV_94_0.7 routing_HV_94_0.7" vType="HV_M" speedFactor="0.90" vaporized=""/>
    <tripinfo id="HV_63_0.0" depart="1.70" departLane="ent-EB610/NB252_0" departPos="5.10" departSpeed="16.09" departDelay="1.70" arrival="168.10" arrivalLane="exit-EB610/CoonRapids_0" arrivalPos="100.00" arrivalSpeed="14.74" duration="166.40" routeLength="3310.79" waitingTime="0.00" waitingCount="0" stopTime="0.00" timeLoss="41.13" rerouteNo="1" devices="tripinfo_HV_63_0.0 routing_HV_63_0.0" vType="HV_M" speedFactor="1.06" vaporized=""/>
    <tripinfo id="HV_20_0.1" depart="81.85" departLane="ent-EB610/NB169-2_0" departPos="5.10" departSpeed="20.06" departDelay="0.03" arrival="169.05" arrivalLane="exit-EB610/Broadway_0" arrivalPos="100.00" arrivalSpeed="15.59" duration="87.20" routeLength="1362.54" waitingTime="0.00" waitingCount="0" stopTime="0.00" timeLoss="27.40" rerouteNo="1" devices="tripinfo_HV_20_0.1 routing_HV_20_0.1" vType="HV_M" speedFactor="1.12" vaporized=""/>
    <tripinfo id="HV_94_0.9" depart="58.15" departLane="ent-EB610/University_0" departPos="5.10" departSpeed="20.06" departDelay="0.04" arrival="171.00" arrivalLane="exit-EB610_2" arrivalPos="200.00" arrivalSpeed="29.57" duration="112.85" routeLength="2411.62" waitingTime="0.00" waitingCount="0" stopTime="0.00" timeLoss="27.31" rerouteNo="1" devices="tripinfo_HV_94_0.9 routing_HV_94_0.9" vType="HV_M" speedFactor="1.11" vaporized=""/>
    <tripinfo id="HV_2_0.0" depart="1.65" departLane="ent-EB610-94_0" departPos="5.10" departSpeed="20.31" departDelay="1.65" arrival="172.05" arrivalLane="exit-EB610/EB81_0" arrivalPos="100.00" arrivalSpeed="14.03" duration="170.40" routeLength="3356.52" waitingTime="0.00" waitingCount="0" stopTime="0.00" timeLoss="40.11" rerouteNo="1" devices="tripinfo_HV_2_0.0 routing_HV_2_0.0" vType="HV_M" speedFactor="1.01" vaporized=""/>
    <tripinfo id="HV_43_0.1" depart="31.45" departLane="ent-EB610/NBNoble_0" departPos="5.10" departSpeed="20.06" departDelay="0.01" arrival="173.30" arrivalLane="exit-EB610/SB252_0" arrivalPos="100.00" arrivalSpeed="15.68" duration="141.85" routeLength="2089.57" waitingTime="0.00" waitingCount="0" stopTime="0.00" timeLoss="64.34" rerouteNo="1" devices="tripinfo_HV_43_0.1 routing_HV_43_0.1" vType="HV_M" speedFactor="1.13" vaporized=""/>
    <tripinfo id="HV_94_0.10" depart="64.60" departLane="ent-EB610/University_0" departPos="5.10" departSpeed="20.05" departDelay="0.03" arrival="178.75" arrivalLane="exit-EB610_1" arrivalPos="200.00" arrivalSpeed="28.65" duration="114.15" routeLength="2411.62" waitingTime="0.00" waitingCount="0" stopTime="0.00" timeLoss="25.18" rerouteNo="1" devices="tripinfo_HV_94_0.10 routing_HV_94_0.10" vType="HV_M" speedFactor="1.07" vaporized=""/>
    <tripinfo id="HV_94_1.8" depart="51.70" departLane="ent-EB610/University_1" departPos="5.10" departSpeed="15.45" departDelay="0.04" arrival="179.05" arrivalLane="exit-EB610_0" arrivalPos="200.00" arrivalSpeed="23.14" duration="127.35" routeLength="2411.62" waitingTime="0.00" waitingCount="0" stopTime="0.00" timeLoss="16.95" rerouteNo="1" devices="tripinfo_HV_94_1.8 routing_HV_94_1.8" vType="HV_M" speedFactor="0.86" vaporized=""/>
    <tripinfo id="HV_43_1.1" depart="31.45" departLane="ent-EB610/NBNoble_1" departPos="5.10" departSpeed="13.53" departDelay="0.01" arrival="179.15" arrivalLane="exit-EB610/SB252_0" arrivalPos="100.00" arrivalSpeed="13.39" duration="147.70" routeLength="2089.57" waitingTime="0.00" waitingCount="0" stopTime="0.00" timeLoss="57.01" rerouteNo="1" devices="tripinfo_HV_43_1.1 routing_HV_43_1.1" vType="HV_M" speedFactor="0.96" vaporized=""/>
    <tripinfo id="HV_20_1.1" depart="81.85" departLane="ent-EB610/NB169-2_1" departPos="5.10" departSpeed="18.51" departDelay="0.03" arrival="179.90" arrivalLane="exit-EB610/Broadway_0" arrivalPos="100.00" arrivalSpeed="12.79" duration="98.05" routeLength="1362.54" waitingTime="0.00" waitingCount="0" stopTime="0.00" timeLoss="25.04" rerouteNo="1" devices="tripinfo_HV_20_1.1 routing_HV_20_1.1" vType="HV_M" speedFactor="0.92" vaporized=""/>
    <tripinfo id="HV_11_0.1" depart="87.85" departLane="ent-EB610/SB169-2_0" departPos="5.10" departSpeed="20.07" departDelay="0.05" arrival="180.40" arrivalLane="exit-EB610/NB169_0" arrivalPos="100.00" arrivalSpeed="17.24" duration="92.55" routeLength="1122.84" waitingTime="0.00" waitingCount="0" stopTime="0.00" timeLoss="50.97" rerouteNo="1" devices="tripinfo_HV_11_0.1 routing_HV_11_0.1" vType="HV_M" speedFactor="1.24" vaporized=""/>
    <tripinfo id="HV_94_1.10" depart="64.60" departLane="ent-EB610/University_1" departPos="5.10" departSpeed="17.51" departDelay="0.03" arrival="181.45" arrivalLane="exit-EB610_1" arrivalPos="200.00" arrivalSpeed="28.54" duration="116.85" routeLength="2411.62" waitingTime="0.00" waitingCount="0" stopTime="0.00" timeLoss="30.89" rerouteNo="1" devices="tripinfo_HV_94_1.10 routing_HV_94_1.10" vType="HV_M" speedFactor="1.11" vaporized=""/>
    <tripinfo id="HV_94_1.9" depart="58.15" departLane="ent-EB610/University_1" departPos="5.10" departSpeed="16.91" departDelay="0.04" arrival="181.60" arrivalLane="exit-EB610_0" arrivalPos="200.00" arrivalSpeed="24.36" duration="123.45" routeLength="2411.62" waitingTime="0.00" waitingCount="0" stopTime="0.00" timeLoss="27.63" rerouteNo="1" devices="tripinfo_HV_94_1.9 routing_HV_94_1.9" vType="HV_M" speedFactor="1.00" vaporized=""/>
    <tripinfo id="HV_16_1.1" depart="38.45" departLane="ent-EB610/SB169-2_1" departPos="5.10" departSpeed="10.56" departDelay="16.50" arrival="182.45" arrivalLane="exit-EB610/Broadway_0" arrivalPos="100.00" arrivalSpeed="14.34" duration="144.00" routeLength="2105.85" waitingTime="0.00" waitingCount="0" stopTime="0.00" timeLoss="60.54" rerouteNo="1" devices="tripinfo_HV_16_1.1 routing_HV_16_1.1" vType="HV_M" speedFactor="1.14" vaporized=""/>
    <tripinfo id="HV_53_1.1" depart="38.30" departLane="ent-EB610/NB252_1" departPos="5.10" departSpeed="11.41" departDelay="0.00" arrival="183.00" arrivalLane="exit-EB610/River_0" arrivalPos="100.00" arrivalSpeed="14.41" duration="144.70" routeLength="2294.41" waitingTime="0.00" waitingCount="0" stopTime="0.00" timeLoss="52.88" rerouteNo="1" devices="tripinfo_HV_53_1.1 routing_HV_53_1.1" vType="HV_M" speedFactor="1.04" vaporized=""/>
    <tripinfo id="HV_94_1.11" depart="71.05" departLane="ent-EB610/University_1" departPos="5.10" departSpeed="17.47" departDelay="0.02" arrival="185.05" arrivalLane="exit-EB610_1" arrivalPos="200.00" arrivalSpeed="27.35" duration="114.00" routeLength="2411.62" waitingTime="0.00" waitingCount="0" stopTime="0.00" timeLoss="21.76" rerouteNo="1" devices="tripinfo_HV_94_1.11 routing_HV_94_1.11" vType="HV_M" speedFactor="1.03" vaporized=""/>
    <tripinfo id="HV_43_1.2" depart="62.90" departLane="ent-EB610/NBNoble_1" departPos="5.10" departSpeed="17.88" departDelay="0.02" arrival="188.75" arrivalLane="exit-EB610/SB252_0" arrivalPos="100.00" arrivalSpeed="13.34" duration="125.85" routeLength="2089.57" waitingTime="0.00" waitingCount="0" stopTime="0.00" timeLoss="34.78" rerouteNo="1" devices="tripinfo_HV_43_1.2 routing_HV_43_1.2" vType="HV_M" speedFactor="0.96" vaporized=""/>